
#(C) 2024 by FIZ Karlsruhe - Leibniz Institute for Information Infrastructure.  All rights reserved.
data_249142-ICSD
_database_code_ICSD 249142
_audit_creation_date 2008-02-01
_chemical_name_common 'Dilead vanadyl bis(phosphate)'
_chemical_formula_structural 'Pb2 (V O (P O4)2)'
_chemical_formula_sum 'O9 P2 Pb2 V1'
_exptl_crystal_density_diffrn 5.84
_citation_title 'The new lead vanadylphosphate Pb2 V O (P O4)2'
loop_
_citation_id
_citation_journal_full
_citation_year
_citation_journal_volume
_citation_page_first
_citation_page_last
_citation_journal_id_ASTM
primary 'Acta Crystallographica, Section C: Crystal Structure Communications'
2006 62 i88 i90 ACSCEE
loop_
_citation_author_citation_id
_citation_author_name
primary 'Shpanchenko, R.V.'
primary 'Kaul, E.E.'
primary 'Geibel, C.'
primary 'Antipov, E.V.'
_cell_length_a 8.747(4)
_cell_length_b 9.016(5)
_cell_length_c 9.863(9)
_cell_angle_alpha 90
_cell_angle_beta 100.96(4)
_cell_angle_gamma 90
_cell_volume 763.64
_cell_formula_units_Z 4
_space_group_name_H-M_alt 'P 1 21/a 1'
_space_group_IT_number 14
loop_
_space_group_symop_id
_symmetry_equiv_pos_as_xyz
1 'x+1/2, -y+1/2, z'
2 '-x, -y, -z'
3 '-x+1/2, y+1/2, -z'
4 'x, y, z'
loop_
_atom_type_symbol
_atom_type_oxidation_number
Pb2+ 2
V4+ 4
P5+ 5
O2- -2
loop_
_atom_site_label
_atom_site_type_symbol
_atom_site_symmetry_multiplicity
_atom_site_Wyckoff_symbol
_atom_site_fract_x
_atom_site_fract_y
_atom_site_fract_z
_atom_site_U_iso_or_equiv
_atom_site_occupancy
Pb1 Pb2+ 4 e 0.48092(8) 0.19226(8) 0.35765(6) 0.0342(2) 1
Pb2 Pb2+ 4 e 0.89553(8) 0.14650(8) 0.71406(7) 0.0337(2) 1
V1 V4+ 4 e 0.2558(3) 0.4989(3) 0.0623(3) 0.0282(6) 1
P1 P5+ 4 e 0.2682(5) 0.5482(5) 0.4276(5) 0.0304(10) 1
P2 P5+ 4 e 0.0052(5) 0.2494(5) 0.0337(4) 0.0267(9) 1
O1 O2- 4 e -0.0752(17) 0.1486(14) 0.1264(13) 0.033(3) 1
O2 O2- 4 e 0.3381(18) 0.590(2) 0.3030(17) 0.045(5) 1
O3 O2- 4 e 0.2541(17) 0.3813(15) 0.443(2) 0.045(5) 1
O4 O2- 4 e 0.1018(16) 0.6158(16) 0.4057(15) 0.037(4) 1
O5 O2- 4 e 0.1128(15) 0.3487(15) 0.1263(14) 0.033(3) 1
O6 O2- 4 e -0.1089(15) 0.3369(16) -0.0721(11) 0.032(3) 1
O7 O2- 4 e 0.0825(17) 0.1485(17) -0.0625(12) 0.035(3) 1
O8 O2- 4 e 0.373(2) 0.5999(19) 0.557(2) 0.053(6) 1
O9 O2- 4 e 0.2205(17) 0.4648(17) -0.0954(13) 0.037(4) 1
loop_
_atom_site_aniso_label
_atom_site_aniso_type_symbol
_atom_site_aniso_U_11
_atom_site_aniso_U_22
_atom_site_aniso_U_33
_atom_site_aniso_U_12
_atom_site_aniso_U_13
_atom_site_aniso_U_23
Pb1 Pb2+ 0.0394(4) 0.0344(4) 0.0291(3) -0.0031(2) 0.0070(2) 0.0006(2)
Pb2 Pb2+ 0.0356(3) 0.0355(4) 0.0306(3) -0.0008(2) 0.0077(2) 0.0002(2)
V1 V4+ 0.0297(10) 0.0273(11) 0.0287(10) 0.0002(9) 0.0082(9) 0.0007(8)
P1 P5+ 0.0314(18) 0.0284(18) 0.0320(16) 0.0000(15) 0.0074(14) 0.0022(14)
P2 P5+ 0.0304(16) 0.0240(17) 0.0268(13) 0.0010(14) 0.0080(13) -0.0011(12)
O1 O2- 0.041(6) 0.025(5) 0.034(5) -0.002(5) 0.013(5) 0.003(4)
O2 O2- 0.037(6) 0.047(8) 0.053(8) 0.003(6) 0.017(6) 0.020(7)
O3 O2- 0.033(6) 0.022(5) 0.079(11) -0.004(5) 0.005(7) -0.002(6)
O4 O2- 0.034(6) 0.036(6) 0.043(6) 0.001(5) 0.015(5) -0.006(5)
O5 O2- 0.032(5) 0.029(5) 0.041(6) -0.008(4) 0.014(5) -0.011(5)
O6 O2- 0.035(5) 0.041(7) 0.021(4) 0.004(5) 0.007(4) -0.001(4)
O7 O2- 0.036(6) 0.045(7) 0.024(4) 0.004(5) 0.003(4) -0.004(5)
O8 O2- 0.045(8) 0.034(7) 0.079(12) 0.000(7) 0.012(8) 0.008(8)
O9 O2- 0.042(6) 0.043(7) 0.026(4) -0.001(6) 0.009(5) -0.009(5)
#End of TTdata_249142-ICSD