
#(C) 2020 by FIZ Karlsruhe - Leibniz Institute for Information Infrastructure.  All rights reserved.
data_257864-ICSD
_database_code_ICSD 257864
_audit_creation_date 2018-02-01
_chemical_name_common 'Titanium oxide'
_chemical_formula_structural 'Ti O2'
_chemical_formula_sum 'O2 Ti1'
_chemical_name_structure_type Rutile#TiO2
_exptl_crystal_density_diffrn 4.23
_citation_title

;
Structure of single-crystal rutile (TiO2) prepared by high-temperature
ultracentrifugation
;
loop_
_citation_id
_citation_journal_full
_citation_year
_citation_journal_volume
_citation_page_first
_citation_page_last
_citation_journal_id_ASTM
primary 'Crystal Growth & Design' 2017 17 1460 1464 CGDEFU
loop_
_citation_author_citation_id
_citation_author_name
primary 'Mashimo, Tsutomu'
primary 'Bagum, Rabaya'
primary 'Ogata, Yudai'
primary 'Tokuda, Makoto'
primary 'Okube, Maki'
primary 'Sugiyama, Kazumasa'
primary 'Kinemuchi, Yoshiaki'
primary 'Isobe, Hiroshi'
primary 'Yoshiasa, Akira'
_cell_length_a 4.6001(5)
_cell_length_b 4.6001(5)
_cell_length_c 2.9288(2)
_cell_angle_alpha 90.
_cell_angle_beta 90.
_cell_angle_gamma 90.
_cell_volume 62.74
_cell_formula_units_Z 2
_space_group_name_H-M_alt 'P 42/m n m'
_space_group_IT_number 136
loop_
_space_group_symop_id
_symmetry_equiv_pos_as_xyz
1 '-y+1/2, x+1/2, -z+1/2'
2 'y+1/2, -x+1/2, -z+1/2'
3 'y, x, -z'
4 '-y, -x, -z'
5 'y+1/2, -x+1/2, z+1/2'
6 '-y+1/2, x+1/2, z+1/2'
7 '-y, -x, z'
8 'y, x, z'
9 'x+1/2, -y+1/2, -z+1/2'
10 '-x+1/2, y+1/2, -z+1/2'
11 'x, y, -z'
12 '-x, -y, -z'
13 '-x+1/2, y+1/2, z+1/2'
14 'x+1/2, -y+1/2, z+1/2'
15 '-x, -y, z'
16 'x, y, z'
loop_
_atom_type_symbol
_atom_type_oxidation_number
Ti4+ 4
O2- -2
loop_
_atom_site_label
_atom_site_type_symbol
_atom_site_symmetry_multiplicity
_atom_site_Wyckoff_symbol
_atom_site_fract_x
_atom_site_fract_y
_atom_site_fract_z
_atom_site_U_iso_or_equiv
_atom_site_occupancy
Ti1 Ti4+ 2 a 0 0 0 0.0070(3) 1.
O1 O2- 4 f 0.3049(1) 0.3049(1) 0 0.0056(4) 1.
#End of TTdata_257864-ICSD